********************************************************************************
*                       GENERAL UTILITY LATTICE PROGRAM                        *
*                                 Julian Gale                                  *
*                      Nanochemistry Research Institute                        *
*                           Department of Chemistry                            *
*                    Curtin University, Western Australia                      *
********************************************************************************
* Version = 4.0.5 * Last modified =  21st June 2012                            *
********************************************************************************
*  single       - perform a single point run                                   *
*  potential    - calculate electrostatic site potentials                      *
*  efg          - calculate electrostatic electric field gradient              *
********************************************************************************

  Job Started  at 11:23.23 28th March      2013                               

  Number of CPUs =     1


  Total number of configurations input =   1

********************************************************************************
*  Input for Configuration =   1                                               *
********************************************************************************

  Formula = Mg256O256                                                   

  Number of irreducible atoms/shells =     512


  Total number atoms/shells =     512

  Dimensionality = 2               :  Surface



  Surface Cartesian vectors (Angstroms) :

        8.200000    0.000000    0.000000
        0.000000    8.200000    0.000000

  Surface cell parameters (Angstroms/Degrees):

  a =       8.2000    alpha =  90.0000
  b =       8.2000

  Initial surface area   =     67.240000 Angs**2

  Initial surface dipole =      0.000000 e.Angs

  Temperature of configuration =  0.000     K 

  Mixed fractional/Cartesian coordinates of surface :

--------------------------------------------------------------------------------
   No.  Atomic       x           y          z         Charge      Occupancy
        Label      (Frac)      (Frac)     (Angs)        (e)         (Frac)  
--------------------------------------------------------------------------------
      1 Mg1   c    0.000000    0.000000      0.0000     2.00000    1.000000    
      2 Mg1   c    0.000000    0.000000      8.2000     2.00000    1.000000    
      3 Mg1   c    0.000000    0.000000     16.4000     2.00000    1.000000    
      4 Mg1   c    0.000000    0.000000     24.6000     2.00000    1.000000    
      5 Mg1   c    0.000000    0.000000     32.8000     2.00000    1.000000    
      6 Mg1   c    0.000000    0.000000     41.0000     2.00000    1.000000    
      7 Mg1   c    0.000000    0.000000     49.2000     2.00000    1.000000    
      8 Mg1   c    0.000000    0.000000     57.4000     2.00000    1.000000    
      9 Mg1   c    0.000000    0.000000      4.1000     2.00000    1.000000    
     10 Mg1   c    0.000000    0.000000     12.3000     2.00000    1.000000    
     11 Mg1   c    0.000000    0.000000     20.5000     2.00000    1.000000    
     12 Mg1   c    0.000000    0.000000     28.7000     2.00000    1.000000    
     13 Mg1   c    0.000000    0.000000     36.9000     2.00000    1.000000    
     14 Mg1   c    0.000000    0.000000     45.1000     2.00000    1.000000    
     15 Mg1   c    0.000000    0.000000     53.3000     2.00000    1.000000    
     16 Mg1   c    0.000000    0.000000     61.5000     2.00000    1.000000    
     17 Mg1   c    0.000000    0.500000      0.0000     2.00000    1.000000    
     18 Mg1   c    0.000000    0.500000      8.2000     2.00000    1.000000    
     19 Mg1   c    0.000000    0.500000     16.4000     2.00000    1.000000    
     20 Mg1   c    0.000000    0.500000     24.6000     2.00000    1.000000    
     21 Mg1   c    0.000000    0.500000     32.8000     2.00000    1.000000    
     22 Mg1   c    0.000000    0.500000     41.0000     2.00000    1.000000    
     23 Mg1   c    0.000000    0.500000     49.2000     2.00000    1.000000    
     24 Mg1   c    0.000000    0.500000     57.4000     2.00000    1.000000    
     25 Mg1   c    0.000000    0.500000      4.1000     2.00000    1.000000    
     26 Mg1   c    0.000000    0.500000     12.3000     2.00000    1.000000    
     27 Mg1   c    0.000000    0.500000     20.5000     2.00000    1.000000    
     28 Mg1   c    0.000000    0.500000     28.7000     2.00000    1.000000    
     29 Mg1   c    0.000000    0.500000     36.9000     2.00000    1.000000    
     30 Mg1   c    0.000000    0.500000     45.1000     2.00000    1.000000    
     31 Mg1   c    0.000000    0.500000     53.3000     2.00000    1.000000    
     32 Mg1   c    0.000000    0.500000     61.5000     2.00000    1.000000    
     33 Mg1   c    0.500000    0.000000      0.0000     2.00000    1.000000    
     34 Mg1   c    0.500000    0.000000      8.2000     2.00000    1.000000    
     35 Mg1   c    0.500000    0.000000     16.4000     2.00000    1.000000    
     36 Mg1   c    0.500000    0.000000     24.6000     2.00000    1.000000    
     37 Mg1   c    0.500000    0.000000     32.8000     2.00000    1.000000    
     38 Mg1   c    0.500000    0.000000     41.0000     2.00000    1.000000    
     39 Mg1   c    0.500000    0.000000     49.2000     2.00000    1.000000    
     40 Mg1   c    0.500000    0.000000     57.4000     2.00000    1.000000    
     41 Mg1   c    0.500000    0.000000      4.1000     2.00000    1.000000    
     42 Mg1   c    0.500000    0.000000     12.3000     2.00000    1.000000    
     43 Mg1   c    0.500000    0.000000     20.5000     2.00000    1.000000    
     44 Mg1   c    0.500000    0.000000     28.7000     2.00000    1.000000    
     45 Mg1   c    0.500000    0.000000     36.9000     2.00000    1.000000    
     46 Mg1   c    0.500000    0.000000     45.1000     2.00000    1.000000    
     47 Mg1   c    0.500000    0.000000     53.3000     2.00000    1.000000    
     48 Mg1   c    0.500000    0.000000     61.5000     2.00000    1.000000    
     49 Mg1   c    0.500000    0.500000      0.0000     2.00000    1.000000    
     50 Mg1   c    0.500000    0.500000      8.2000     2.00000    1.000000    
     51 Mg1   c    0.500000    0.500000     16.4000     2.00000    1.000000    
     52 Mg1   c    0.500000    0.500000     24.6000     2.00000    1.000000    
     53 Mg1   c    0.500000    0.500000     32.8000     2.00000    1.000000    
     54 Mg1   c    0.500000    0.500000     41.0000     2.00000    1.000000    
     55 Mg1   c    0.500000    0.500000     49.2000     2.00000    1.000000    
     56 Mg1   c    0.500000    0.500000     57.4000     2.00000    1.000000    
     57 Mg1   c    0.500000    0.500000      4.1000     2.00000    1.000000    
     58 Mg1   c    0.500000    0.500000     12.3000     2.00000    1.000000    
     59 Mg1   c    0.500000    0.500000     20.5000     2.00000    1.000000    
     60 Mg1   c    0.500000    0.500000     28.7000     2.00000    1.000000    
     61 Mg1   c    0.500000    0.500000     36.9000     2.00000    1.000000    
     62 Mg1   c    0.500000    0.500000     45.1000     2.00000    1.000000    
     63 Mg1   c    0.500000    0.500000     53.3000     2.00000    1.000000    
     64 Mg1   c    0.500000    0.500000     61.5000     2.00000    1.000000    
     65 Mg1   c    0.000000    0.250000      2.0467     2.00000    1.000000    
     66 Mg1   c    0.000000    0.250000     10.2467     2.00000    1.000000    
     67 Mg1   c    0.000000    0.250000     18.4467     2.00000    1.000000    
     68 Mg1   c    0.000000    0.250000     26.6467     2.00000    1.000000    
     69 Mg1   c    0.000000    0.250000     34.8467     2.00000    1.000000    
     70 Mg1   c    0.000000    0.250000     43.0467     2.00000    1.000000    
     71 Mg1   c    0.000000    0.250000     51.2467     2.00000    1.000000    
     72 Mg1   c    0.000000    0.250000     59.4467     2.00000    1.000000    
     73 Mg1   c    0.000000    0.250000      6.1533     2.00000    1.000000    
     74 Mg1   c    0.000000    0.250000     14.3533     2.00000    1.000000    
     75 Mg1   c    0.000000    0.250000     22.5533     2.00000    1.000000    
     76 Mg1   c    0.000000    0.250000     30.7533     2.00000    1.000000    
     77 Mg1   c    0.000000    0.250000     38.9533     2.00000    1.000000    
     78 Mg1   c    0.000000    0.250000     47.1533     2.00000    1.000000    
     79 Mg1   c    0.000000    0.250000     55.3533     2.00000    1.000000    
     80 Mg1   c    0.000000    0.250000     63.5533     2.00000    1.000000    
     81 Mg1   c    0.000000    0.750000      2.0467     2.00000    1.000000    
     82 Mg1   c    0.000000    0.750000     10.2467     2.00000    1.000000    
     83 Mg1   c    0.000000    0.750000     18.4467     2.00000    1.000000    
     84 Mg1   c    0.000000    0.750000     26.6467     2.00000    1.000000    
     85 Mg1   c    0.000000    0.750000     34.8467     2.00000    1.000000    
     86 Mg1   c    0.000000    0.750000     43.0467     2.00000    1.000000    
     87 Mg1   c    0.000000    0.750000     51.2467     2.00000    1.000000    
     88 Mg1   c    0.000000    0.750000     59.4467     2.00000    1.000000    
     89 Mg1   c    0.000000    0.750000      6.1533     2.00000    1.000000    
     90 Mg1   c    0.000000    0.750000     14.3533     2.00000    1.000000    
     91 Mg1   c    0.000000    0.750000     22.5533     2.00000    1.000000    
     92 Mg1   c    0.000000    0.750000     30.7533     2.00000    1.000000    
     93 Mg1   c    0.000000    0.750000     38.9533     2.00000    1.000000    
     94 Mg1   c    0.000000    0.750000     47.1533     2.00000    1.000000    
     95 Mg1   c    0.000000    0.750000     55.3533     2.00000    1.000000    
     96 Mg1   c    0.000000    0.750000     63.5533     2.00000    1.000000    
     97 Mg1   c    0.500000    0.250000      2.0467     2.00000    1.000000    
     98 Mg1   c    0.500000    0.250000     10.2467     2.00000    1.000000    
     99 Mg1   c    0.500000    0.250000     18.4467     2.00000    1.000000    
    100 Mg1   c    0.500000    0.250000     26.6467     2.00000    1.000000    
    101 Mg1   c    0.500000    0.250000     34.8467     2.00000    1.000000    
    102 Mg1   c    0.500000    0.250000     43.0467     2.00000    1.000000    
    103 Mg1   c    0.500000    0.250000     51.2467     2.00000    1.000000    
    104 Mg1   c    0.500000    0.250000     59.4467     2.00000    1.000000    
    105 Mg1   c    0.500000    0.250000      6.1533     2.00000    1.000000    
    106 Mg1   c    0.500000    0.250000     14.3533     2.00000    1.000000    
    107 Mg1   c    0.500000    0.250000     22.5533     2.00000    1.000000    
    108 Mg1   c    0.500000    0.250000     30.7533     2.00000    1.000000    
    109 Mg1   c    0.500000    0.250000     38.9533     2.00000    1.000000    
    110 Mg1   c    0.500000    0.250000     47.1533     2.00000    1.000000    
    111 Mg1   c    0.500000    0.250000     55.3533     2.00000    1.000000    
    112 Mg1   c    0.500000    0.250000     63.5533     2.00000    1.000000    
    113 Mg1   c    0.500000    0.750000      2.0467     2.00000    1.000000    
    114 Mg1   c    0.500000    0.750000     10.2467     2.00000    1.000000    
    115 Mg1   c    0.500000    0.750000     18.4467     2.00000    1.000000    
    116 Mg1   c    0.500000    0.750000     26.6467     2.00000    1.000000    
    117 Mg1   c    0.500000    0.750000     34.8467     2.00000    1.000000    
    118 Mg1   c    0.500000    0.750000     43.0467     2.00000    1.000000    
    119 Mg1   c    0.500000    0.750000     51.2467     2.00000    1.000000    
    120 Mg1   c    0.500000    0.750000     59.4467     2.00000    1.000000    
    121 Mg1   c    0.500000    0.750000      6.1533     2.00000    1.000000    
    122 Mg1   c    0.500000    0.750000     14.3533     2.00000    1.000000    
    123 Mg1   c    0.500000    0.750000     22.5533     2.00000    1.000000    
    124 Mg1   c    0.500000    0.750000     30.7533     2.00000    1.000000    
    125 Mg1   c    0.500000    0.750000     38.9533     2.00000    1.000000    
    126 Mg1   c    0.500000    0.750000     47.1533     2.00000    1.000000    
    127 Mg1   c    0.500000    0.750000     55.3533     2.00000    1.000000    
    128 Mg1   c    0.500000    0.750000     63.5533     2.00000    1.000000    
    129 Mg1   c    0.250000    0.250000      0.0000     2.00000    1.000000    
    130 Mg1   c    0.250000    0.250000      8.2000     2.00000    1.000000    
    131 Mg1   c    0.250000    0.250000     16.4000     2.00000    1.000000    
    132 Mg1   c    0.250000    0.250000     24.6000     2.00000    1.000000    
    133 Mg1   c    0.250000    0.250000     32.8000     2.00000    1.000000    
    134 Mg1   c    0.250000    0.250000     41.0000     2.00000    1.000000    
    135 Mg1   c    0.250000    0.250000     49.2000     2.00000    1.000000    
    136 Mg1   c    0.250000    0.250000     57.4000     2.00000    1.000000    
    137 Mg1   c    0.250000    0.250000      4.1000     2.00000    1.000000    
    138 Mg1   c    0.250000    0.250000     12.3000     2.00000    1.000000    
    139 Mg1   c    0.250000    0.250000     20.5000     2.00000    1.000000    
    140 Mg1   c    0.250000    0.250000     28.7000     2.00000    1.000000    
    141 Mg1   c    0.250000    0.250000     36.9000     2.00000    1.000000    
    142 Mg1   c    0.250000    0.250000     45.1000     2.00000    1.000000    
    143 Mg1   c    0.250000    0.250000     53.3000     2.00000    1.000000    
    144 Mg1   c    0.250000    0.250000     61.5000     2.00000    1.000000    
    145 Mg1   c    0.250000    0.750000      0.0000     2.00000    1.000000    
    146 Mg1   c    0.250000    0.750000      8.2000     2.00000    1.000000    
    147 Mg1   c    0.250000    0.750000     16.4000     2.00000    1.000000    
    148 Mg1   c    0.250000    0.750000     24.6000     2.00000    1.000000    
    149 Mg1   c    0.250000    0.750000     32.8000     2.00000    1.000000    
    150 Mg1   c    0.250000    0.750000     41.0000     2.00000    1.000000    
    151 Mg1   c    0.250000    0.750000     49.2000     2.00000    1.000000    
    152 Mg1   c    0.250000    0.750000     57.4000     2.00000    1.000000    
    153 Mg1   c    0.250000    0.750000      4.1000     2.00000    1.000000    
    154 Mg1   c    0.250000    0.750000     12.3000     2.00000    1.000000    
    155 Mg1   c    0.250000    0.750000     20.5000     2.00000    1.000000    
    156 Mg1   c    0.250000    0.750000     28.7000     2.00000    1.000000    
    157 Mg1   c    0.250000    0.750000     36.9000     2.00000    1.000000    
    158 Mg1   c    0.250000    0.750000     45.1000     2.00000    1.000000    
    159 Mg1   c    0.250000    0.750000     53.3000     2.00000    1.000000    
    160 Mg1   c    0.250000    0.750000     61.5000     2.00000    1.000000    
    161 Mg1   c    0.750000    0.250000      0.0000     2.00000    1.000000    
    162 Mg1   c    0.750000    0.250000      8.2000     2.00000    1.000000    
    163 Mg1   c    0.750000    0.250000     16.4000     2.00000    1.000000    
    164 Mg1   c    0.750000    0.250000     24.6000     2.00000    1.000000    
    165 Mg1   c    0.750000    0.250000     32.8000     2.00000    1.000000    
    166 Mg1   c    0.750000    0.250000     41.0000     2.00000    1.000000    
    167 Mg1   c    0.750000    0.250000     49.2000     2.00000    1.000000    
    168 Mg1   c    0.750000    0.250000     57.4000     2.00000    1.000000    
    169 Mg1   c    0.750000    0.250000      4.1000     2.00000    1.000000    
    170 Mg1   c    0.750000    0.250000     12.3000     2.00000    1.000000    
    171 Mg1   c    0.750000    0.250000     20.5000     2.00000    1.000000    
    172 Mg1   c    0.750000    0.250000     28.7000     2.00000    1.000000    
    173 Mg1   c    0.750000    0.250000     36.9000     2.00000    1.000000    
    174 Mg1   c    0.750000    0.250000     45.1000     2.00000    1.000000    
    175 Mg1   c    0.750000    0.250000     53.3000     2.00000    1.000000    
    176 Mg1   c    0.750000    0.250000     61.5000     2.00000    1.000000    
    177 Mg1   c    0.750000    0.750000      0.0000     2.00000    1.000000    
    178 Mg1   c    0.750000    0.750000      8.2000     2.00000    1.000000    
    179 Mg1   c    0.750000    0.750000     16.4000     2.00000    1.000000    
    180 Mg1   c    0.750000    0.750000     24.6000     2.00000    1.000000    
    181 Mg1   c    0.750000    0.750000     32.8000     2.00000    1.000000    
    182 Mg1   c    0.750000    0.750000     41.0000     2.00000    1.000000    
    183 Mg1   c    0.750000    0.750000     49.2000     2.00000    1.000000    
    184 Mg1   c    0.750000    0.750000     57.4000     2.00000    1.000000    
    185 Mg1   c    0.750000    0.750000      4.1000     2.00000    1.000000    
    186 Mg1   c    0.750000    0.750000     12.3000     2.00000    1.000000    
    187 Mg1   c    0.750000    0.750000     20.5000     2.00000    1.000000    
    188 Mg1   c    0.750000    0.750000     28.7000     2.00000    1.000000    
    189 Mg1   c    0.750000    0.750000     36.9000     2.00000    1.000000    
    190 Mg1   c    0.750000    0.750000     45.1000     2.00000    1.000000    
    191 Mg1   c    0.750000    0.750000     53.3000     2.00000    1.000000    
    192 Mg1   c    0.750000    0.750000     61.5000     2.00000    1.000000    
    193 Mg1   c    0.250000    0.000000      2.0467     2.00000    1.000000    
    194 Mg1   c    0.250000    0.000000     10.2467     2.00000    1.000000    
    195 Mg1   c    0.250000    0.000000     18.4467     2.00000    1.000000    
    196 Mg1   c    0.250000    0.000000     26.6467     2.00000    1.000000    
    197 Mg1   c    0.250000    0.000000     34.8467     2.00000    1.000000    
    198 Mg1   c    0.250000    0.000000     43.0467     2.00000    1.000000    
    199 Mg1   c    0.250000    0.000000     51.2467     2.00000    1.000000    
    200 Mg1   c    0.250000    0.000000     59.4467     2.00000    1.000000    
    201 Mg1   c    0.250000    0.000000      6.1533     2.00000    1.000000    
    202 Mg1   c    0.250000    0.000000     14.3533     2.00000    1.000000    
    203 Mg1   c    0.250000    0.000000     22.5533     2.00000    1.000000    
    204 Mg1   c    0.250000    0.000000     30.7533     2.00000    1.000000    
    205 Mg1   c    0.250000    0.000000     38.9533     2.00000    1.000000    
    206 Mg1   c    0.250000    0.000000     47.1533     2.00000    1.000000    
    207 Mg1   c    0.250000    0.000000     55.3533     2.00000    1.000000    
    208 Mg1   c    0.250000    0.000000     63.5533     2.00000    1.000000    
    209 Mg1   c    0.250000    0.500000      2.0467     2.00000    1.000000    
    210 Mg1   c    0.250000    0.500000     10.2467     2.00000    1.000000    
    211 Mg1   c    0.250000    0.500000     18.4467     2.00000    1.000000    
    212 Mg1   c    0.250000    0.500000     26.6467     2.00000    1.000000    
    213 Mg1   c    0.250000    0.500000     34.8467     2.00000    1.000000    
    214 Mg1   c    0.250000    0.500000     43.0467     2.00000    1.000000    
    215 Mg1   c    0.250000    0.500000     51.2467     2.00000    1.000000    
    216 Mg1   c    0.250000    0.500000     59.4467     2.00000    1.000000    
    217 Mg1   c    0.250000    0.500000      6.1533     2.00000    1.000000    
    218 Mg1   c    0.250000    0.500000     14.3533     2.00000    1.000000    
    219 Mg1   c    0.250000    0.500000     22.5533     2.00000    1.000000    
    220 Mg1   c    0.250000    0.500000     30.7533     2.00000    1.000000    
    221 Mg1   c    0.250000    0.500000     38.9533     2.00000    1.000000    
    222 Mg1   c    0.250000    0.500000     47.1533     2.00000    1.000000    
    223 Mg1   c    0.250000    0.500000     55.3533     2.00000    1.000000    
    224 Mg1   c    0.250000    0.500000     63.5533     2.00000    1.000000    
    225 Mg1   c    0.750000    0.000000      2.0467     2.00000    1.000000    
    226 Mg1   c    0.750000    0.000000     10.2467     2.00000    1.000000    
    227 Mg1   c    0.750000    0.000000     18.4467     2.00000    1.000000    
    228 Mg1   c    0.750000    0.000000     26.6467     2.00000    1.000000    
    229 Mg1   c    0.750000    0.000000     34.8467     2.00000    1.000000    
    230 Mg1   c    0.750000    0.000000     43.0467     2.00000    1.000000    
    231 Mg1   c    0.750000    0.000000     51.2467     2.00000    1.000000    
    232 Mg1   c    0.750000    0.000000     59.4467     2.00000    1.000000    
    233 Mg1   c    0.750000    0.000000      6.1533     2.00000    1.000000    
    234 Mg1   c    0.750000    0.000000     14.3533     2.00000    1.000000    
    235 Mg1   c    0.750000    0.000000     22.5533     2.00000    1.000000    
    236 Mg1   c    0.750000    0.000000     30.7533     2.00000    1.000000    
    237 Mg1   c    0.750000    0.000000     38.9533     2.00000    1.000000    
    238 Mg1   c    0.750000    0.000000     47.1533     2.00000    1.000000    
    239 Mg1   c    0.750000    0.000000     55.3533     2.00000    1.000000    
    240 Mg1   c    0.750000    0.000000     63.5533     2.00000    1.000000    
    241 Mg1   c    0.750000    0.500000      2.0467     2.00000    1.000000    
    242 Mg1   c    0.750000    0.500000     10.2467     2.00000    1.000000    
    243 Mg1   c    0.750000    0.500000     18.4467     2.00000    1.000000    
    244 Mg1   c    0.750000    0.500000     26.6467     2.00000    1.000000    
    245 Mg1   c    0.750000    0.500000     34.8467     2.00000    1.000000    
    246 Mg1   c    0.750000    0.500000     43.0467     2.00000    1.000000    
    247 Mg1   c    0.750000    0.500000     51.2467     2.00000    1.000000    
    248 Mg1   c    0.750000    0.500000     59.4467     2.00000    1.000000    
    249 Mg1   c    0.750000    0.500000      6.1533     2.00000    1.000000    
    250 Mg1   c    0.750000    0.500000     14.3533     2.00000    1.000000    
    251 Mg1   c    0.750000    0.500000     22.5533     2.00000    1.000000    
    252 Mg1   c    0.750000    0.500000     30.7533     2.00000    1.000000    
    253 Mg1   c    0.750000    0.500000     38.9533     2.00000    1.000000    
    254 Mg1   c    0.750000    0.500000     47.1533     2.00000    1.000000    
    255 Mg1   c    0.750000    0.500000     55.3533     2.00000    1.000000    
    256 Mg1   c    0.750000    0.500000     63.5533     2.00000    1.000000    
    257 O1    c    0.250000    0.250000      2.0467    -2.00000    1.000000    
    258 O1    c    0.250000    0.250000     10.2467    -2.00000    1.000000    
    259 O1    c    0.250000    0.250000     18.4467    -2.00000    1.000000    
    260 O1    c    0.250000    0.250000     26.6467    -2.00000    1.000000    
    261 O1    c    0.250000    0.250000     34.8467    -2.00000    1.000000    
    262 O1    c    0.250000    0.250000     43.0467    -2.00000    1.000000    
    263 O1    c    0.250000    0.250000     51.2467    -2.00000    1.000000    
    264 O1    c    0.250000    0.250000     59.4467    -2.00000    1.000000    
    265 O1    c    0.250000    0.250000      6.1533    -2.00000    1.000000    
    266 O1    c    0.250000    0.250000     14.3533    -2.00000    1.000000    
    267 O1    c    0.250000    0.250000     22.5533    -2.00000    1.000000    
    268 O1    c    0.250000    0.250000     30.7533    -2.00000    1.000000    
    269 O1    c    0.250000    0.250000     38.9533    -2.00000    1.000000    
    270 O1    c    0.250000    0.250000     47.1533    -2.00000    1.000000    
    271 O1    c    0.250000    0.250000     55.3533    -2.00000    1.000000    
    272 O1    c    0.250000    0.250000     63.5533    -2.00000    1.000000    
    273 O1    c    0.250000    0.750000      2.0467    -2.00000    1.000000    
    274 O1    c    0.250000    0.750000     10.2467    -2.00000    1.000000    
    275 O1    c    0.250000    0.750000     18.4467    -2.00000    1.000000    
    276 O1    c    0.250000    0.750000     26.6467    -2.00000    1.000000    
    277 O1    c    0.250000    0.750000     34.8467    -2.00000    1.000000    
    278 O1    c    0.250000    0.750000     43.0467    -2.00000    1.000000    
    279 O1    c    0.250000    0.750000     51.2467    -2.00000    1.000000    
    280 O1    c    0.250000    0.750000     59.4467    -2.00000    1.000000    
    281 O1    c    0.250000    0.750000      6.1533    -2.00000    1.000000    
    282 O1    c    0.250000    0.750000     14.3533    -2.00000    1.000000    
    283 O1    c    0.250000    0.750000     22.5533    -2.00000    1.000000    
    284 O1    c    0.250000    0.750000     30.7533    -2.00000    1.000000    
    285 O1    c    0.250000    0.750000     38.9533    -2.00000    1.000000    
    286 O1    c    0.250000    0.750000     47.1533    -2.00000    1.000000    
    287 O1    c    0.250000    0.750000     55.3533    -2.00000    1.000000    
    288 O1    c    0.250000    0.750000     63.5533    -2.00000    1.000000    
    289 O1    c    0.750000    0.250000      2.0467    -2.00000    1.000000    
    290 O1    c    0.750000    0.250000     10.2467    -2.00000    1.000000    
    291 O1    c    0.750000    0.250000     18.4467    -2.00000    1.000000    
    292 O1    c    0.750000    0.250000     26.6467    -2.00000    1.000000    
    293 O1    c    0.750000    0.250000     34.8467    -2.00000    1.000000    
    294 O1    c    0.750000    0.250000     43.0467    -2.00000    1.000000    
    295 O1    c    0.750000    0.250000     51.2467    -2.00000    1.000000    
    296 O1    c    0.750000    0.250000     59.4467    -2.00000    1.000000    
    297 O1    c    0.750000    0.250000      6.1533    -2.00000    1.000000    
    298 O1    c    0.750000    0.250000     14.3533    -2.00000    1.000000    
    299 O1    c    0.750000    0.250000     22.5533    -2.00000    1.000000    
    300 O1    c    0.750000    0.250000     30.7533    -2.00000    1.000000    
    301 O1    c    0.750000    0.250000     38.9533    -2.00000    1.000000    
    302 O1    c    0.750000    0.250000     47.1533    -2.00000    1.000000    
    303 O1    c    0.750000    0.250000     55.3533    -2.00000    1.000000    
    304 O1    c    0.750000    0.250000     63.5533    -2.00000    1.000000    
    305 O1    c    0.750000    0.750000      2.0467    -2.00000    1.000000    
    306 O1    c    0.750000    0.750000     10.2467    -2.00000    1.000000    
    307 O1    c    0.750000    0.750000     18.4467    -2.00000    1.000000    
    308 O1    c    0.750000    0.750000     26.6467    -2.00000    1.000000    
    309 O1    c    0.750000    0.750000     34.8467    -2.00000    1.000000    
    310 O1    c    0.750000    0.750000     43.0467    -2.00000    1.000000    
    311 O1    c    0.750000    0.750000     51.2467    -2.00000    1.000000    
    312 O1    c    0.750000    0.750000     59.4467    -2.00000    1.000000    
    313 O1    c    0.750000    0.750000      6.1533    -2.00000    1.000000    
    314 O1    c    0.750000    0.750000     14.3533    -2.00000    1.000000    
    315 O1    c    0.750000    0.750000     22.5533    -2.00000    1.000000    
    316 O1    c    0.750000    0.750000     30.7533    -2.00000    1.000000    
    317 O1    c    0.750000    0.750000     38.9533    -2.00000    1.000000    
    318 O1    c    0.750000    0.750000     47.1533    -2.00000    1.000000    
    319 O1    c    0.750000    0.750000     55.3533    -2.00000    1.000000    
    320 O1    c    0.750000    0.750000     63.5533    -2.00000    1.000000    
    321 O1    c    0.250000    0.000000      0.0000    -2.00000    1.000000    
    322 O1    c    0.250000    0.000000      8.2000    -2.00000    1.000000    
    323 O1    c    0.250000    0.000000     16.4000    -2.00000    1.000000    
    324 O1    c    0.250000    0.000000     24.6000    -2.00000    1.000000    
    325 O1    c    0.250000    0.000000     32.8000    -2.00000    1.000000    
    326 O1    c    0.250000    0.000000     41.0000    -2.00000    1.000000    
    327 O1    c    0.250000    0.000000     49.2000    -2.00000    1.000000    
    328 O1    c    0.250000    0.000000     57.4000    -2.00000    1.000000    
    329 O1    c    0.250000    0.000000      4.1000    -2.00000    1.000000    
    330 O1    c    0.250000    0.000000     12.3000    -2.00000    1.000000    
    331 O1    c    0.250000    0.000000     20.5000    -2.00000    1.000000    
    332 O1    c    0.250000    0.000000     28.7000    -2.00000    1.000000    
    333 O1    c    0.250000    0.000000     36.9000    -2.00000    1.000000    
    334 O1    c    0.250000    0.000000     45.1000    -2.00000    1.000000    
    335 O1    c    0.250000    0.000000     53.3000    -2.00000    1.000000    
    336 O1    c    0.250000    0.000000     61.5000    -2.00000    1.000000    
    337 O1    c    0.250000    0.500000      0.0000    -2.00000    1.000000    
    338 O1    c    0.250000    0.500000      8.2000    -2.00000    1.000000    
    339 O1    c    0.250000    0.500000     16.4000    -2.00000    1.000000    
    340 O1    c    0.250000    0.500000     24.6000    -2.00000    1.000000    
    341 O1    c    0.250000    0.500000     32.8000    -2.00000    1.000000    
    342 O1    c    0.250000    0.500000     41.0000    -2.00000    1.000000    
    343 O1    c    0.250000    0.500000     49.2000    -2.00000    1.000000    
    344 O1    c    0.250000    0.500000     57.4000    -2.00000    1.000000    
    345 O1    c    0.250000    0.500000      4.1000    -2.00000    1.000000    
    346 O1    c    0.250000    0.500000     12.3000    -2.00000    1.000000    
    347 O1    c    0.250000    0.500000     20.5000    -2.00000    1.000000    
    348 O1    c    0.250000    0.500000     28.7000    -2.00000    1.000000    
    349 O1    c    0.250000    0.500000     36.9000    -2.00000    1.000000    
    350 O1    c    0.250000    0.500000     45.1000    -2.00000    1.000000    
    351 O1    c    0.250000    0.500000     53.3000    -2.00000    1.000000    
    352 O1    c    0.250000    0.500000     61.5000    -2.00000    1.000000    
    353 O1    c    0.750000    0.000000      0.0000    -2.00000    1.000000    
    354 O1    c    0.750000    0.000000      8.2000    -2.00000    1.000000    
    355 O1    c    0.750000    0.000000     16.4000    -2.00000    1.000000    
    356 O1    c    0.750000    0.000000     24.6000    -2.00000    1.000000    
    357 O1    c    0.750000    0.000000     32.8000    -2.00000    1.000000    
    358 O1    c    0.750000    0.000000     41.0000    -2.00000    1.000000    
    359 O1    c    0.750000    0.000000     49.2000    -2.00000    1.000000    
    360 O1    c    0.750000    0.000000     57.4000    -2.00000    1.000000    
    361 O1    c    0.750000    0.000000      4.1000    -2.00000    1.000000    
    362 O1    c    0.750000    0.000000     12.3000    -2.00000    1.000000    
    363 O1    c    0.750000    0.000000     20.5000    -2.00000    1.000000    
    364 O1    c    0.750000    0.000000     28.7000    -2.00000    1.000000    
    365 O1    c    0.750000    0.000000     36.9000    -2.00000    1.000000    
    366 O1    c    0.750000    0.000000     45.1000    -2.00000    1.000000    
    367 O1    c    0.750000    0.000000     53.3000    -2.00000    1.000000    
    368 O1    c    0.750000    0.000000     61.5000    -2.00000    1.000000    
    369 O1    c    0.750000    0.500000      0.0000    -2.00000    1.000000    
    370 O1    c    0.750000    0.500000      8.2000    -2.00000    1.000000    
    371 O1    c    0.750000    0.500000     16.4000    -2.00000    1.000000    
    372 O1    c    0.750000    0.500000     24.6000    -2.00000    1.000000    
    373 O1    c    0.750000    0.500000     32.8000    -2.00000    1.000000    
    374 O1    c    0.750000    0.500000     41.0000    -2.00000    1.000000    
    375 O1    c    0.750000    0.500000     49.2000    -2.00000    1.000000    
    376 O1    c    0.750000    0.500000     57.4000    -2.00000    1.000000    
    377 O1    c    0.750000    0.500000      4.1000    -2.00000    1.000000    
    378 O1    c    0.750000    0.500000     12.3000    -2.00000    1.000000    
    379 O1    c    0.750000    0.500000     20.5000    -2.00000    1.000000    
    380 O1    c    0.750000    0.500000     28.7000    -2.00000    1.000000    
    381 O1    c    0.750000    0.500000     36.9000    -2.00000    1.000000    
    382 O1    c    0.750000    0.500000     45.1000    -2.00000    1.000000    
    383 O1    c    0.750000    0.500000     53.3000    -2.00000    1.000000    
    384 O1    c    0.750000    0.500000     61.5000    -2.00000    1.000000    
    385 O1    c    0.000000    0.000000      2.0467    -2.00000    1.000000    
    386 O1    c    0.000000    0.000000     10.2467    -2.00000    1.000000    
    387 O1    c    0.000000    0.000000     18.4467    -2.00000    1.000000    
    388 O1    c    0.000000    0.000000     26.6467    -2.00000    1.000000    
    389 O1    c    0.000000    0.000000     34.8467    -2.00000    1.000000    
    390 O1    c    0.000000    0.000000     43.0467    -2.00000    1.000000    
    391 O1    c    0.000000    0.000000     51.2467    -2.00000    1.000000    
    392 O1    c    0.000000    0.000000     59.4467    -2.00000    1.000000    
    393 O1    c    0.000000    0.000000      6.1533    -2.00000    1.000000    
    394 O1    c    0.000000    0.000000     14.3533    -2.00000    1.000000    
    395 O1    c    0.000000    0.000000     22.5533    -2.00000    1.000000    
    396 O1    c    0.000000    0.000000     30.7533    -2.00000    1.000000    
    397 O1    c    0.000000    0.000000     38.9533    -2.00000    1.000000    
    398 O1    c    0.000000    0.000000     47.1533    -2.00000    1.000000    
    399 O1    c    0.000000    0.000000     55.3533    -2.00000    1.000000    
    400 O1    c    0.000000    0.000000     63.5533    -2.00000    1.000000    
    401 O1    c    0.000000    0.500000      2.0467    -2.00000    1.000000    
    402 O1    c    0.000000    0.500000     10.2467    -2.00000    1.000000    
    403 O1    c    0.000000    0.500000     18.4467    -2.00000    1.000000    
    404 O1    c    0.000000    0.500000     26.6467    -2.00000    1.000000    
    405 O1    c    0.000000    0.500000     34.8467    -2.00000    1.000000    
    406 O1    c    0.000000    0.500000     43.0467    -2.00000    1.000000    
    407 O1    c    0.000000    0.500000     51.2467    -2.00000    1.000000    
    408 O1    c    0.000000    0.500000     59.4467    -2.00000    1.000000    
    409 O1    c    0.000000    0.500000      6.1533    -2.00000    1.000000    
    410 O1    c    0.000000    0.500000     14.3533    -2.00000    1.000000    
    411 O1    c    0.000000    0.500000     22.5533    -2.00000    1.000000    
    412 O1    c    0.000000    0.500000     30.7533    -2.00000    1.000000    
    413 O1    c    0.000000    0.500000     38.9533    -2.00000    1.000000    
    414 O1    c    0.000000    0.500000     47.1533    -2.00000    1.000000    
    415 O1    c    0.000000    0.500000     55.3533    -2.00000    1.000000    
    416 O1    c    0.000000    0.500000     63.5533    -2.00000    1.000000    
    417 O1    c    0.500000    0.000000      2.0467    -2.00000    1.000000    
    418 O1    c    0.500000    0.000000     10.2467    -2.00000    1.000000    
    419 O1    c    0.500000    0.000000     18.4467    -2.00000    1.000000    
    420 O1    c    0.500000    0.000000     26.6467    -2.00000    1.000000    
    421 O1    c    0.500000    0.000000     34.8467    -2.00000    1.000000    
    422 O1    c    0.500000    0.000000     43.0467    -2.00000    1.000000    
    423 O1    c    0.500000    0.000000     51.2467    -2.00000    1.000000    
    424 O1    c    0.500000    0.000000     59.4467    -2.00000    1.000000    
    425 O1    c    0.500000    0.000000      6.1533    -2.00000    1.000000    
    426 O1    c    0.500000    0.000000     14.3533    -2.00000    1.000000    
    427 O1    c    0.500000    0.000000     22.5533    -2.00000    1.000000    
    428 O1    c    0.500000    0.000000     30.7533    -2.00000    1.000000    
    429 O1    c    0.500000    0.000000     38.9533    -2.00000    1.000000    
    430 O1    c    0.500000    0.000000     47.1533    -2.00000    1.000000    
    431 O1    c    0.500000    0.000000     55.3533    -2.00000    1.000000    
    432 O1    c    0.500000    0.000000     63.5533    -2.00000    1.000000    
    433 O1    c    0.500000    0.500000      2.0467    -2.00000    1.000000    
    434 O1    c    0.500000    0.500000     10.2467    -2.00000    1.000000    
    435 O1    c    0.500000    0.500000     18.4467    -2.00000    1.000000    
    436 O1    c    0.500000    0.500000     26.6467    -2.00000    1.000000    
    437 O1    c    0.500000    0.500000     34.8467    -2.00000    1.000000    
    438 O1    c    0.500000    0.500000     43.0467    -2.00000    1.000000    
    439 O1    c    0.500000    0.500000     51.2467    -2.00000    1.000000    
    440 O1    c    0.500000    0.500000     59.4467    -2.00000    1.000000    
    441 O1    c    0.500000    0.500000      6.1533    -2.00000    1.000000    
    442 O1    c    0.500000    0.500000     14.3533    -2.00000    1.000000    
    443 O1    c    0.500000    0.500000     22.5533    -2.00000    1.000000    
    444 O1    c    0.500000    0.500000     30.7533    -2.00000    1.000000    
    445 O1    c    0.500000    0.500000     38.9533    -2.00000    1.000000    
    446 O1    c    0.500000    0.500000     47.1533    -2.00000    1.000000    
    447 O1    c    0.500000    0.500000     55.3533    -2.00000    1.000000    
    448 O1    c    0.500000    0.500000     63.5533    -2.00000    1.000000    
    449 O1    c    0.000000    0.250000      0.0000    -2.00000    1.000000    
    450 O1    c    0.000000    0.250000      8.2000    -2.00000    1.000000    
    451 O1    c    0.000000    0.250000     16.4000    -2.00000    1.000000    
    452 O1    c    0.000000    0.250000     24.6000    -2.00000    1.000000    
    453 O1    c    0.000000    0.250000     32.8000    -2.00000    1.000000    
    454 O1    c    0.000000    0.250000     41.0000    -2.00000    1.000000    
    455 O1    c    0.000000    0.250000     49.2000    -2.00000    1.000000    
    456 O1    c    0.000000    0.250000     57.4000    -2.00000    1.000000    
    457 O1    c    0.000000    0.250000      4.1000    -2.00000    1.000000    
    458 O1    c    0.000000    0.250000     12.3000    -2.00000    1.000000    
    459 O1    c    0.000000    0.250000     20.5000    -2.00000    1.000000    
    460 O1    c    0.000000    0.250000     28.7000    -2.00000    1.000000    
    461 O1    c    0.000000    0.250000     36.9000    -2.00000    1.000000    
    462 O1    c    0.000000    0.250000     45.1000    -2.00000    1.000000    
    463 O1    c    0.000000    0.250000     53.3000    -2.00000    1.000000    
    464 O1    c    0.000000    0.250000     61.5000    -2.00000    1.000000    
    465 O1    c    0.000000    0.750000      0.0000    -2.00000    1.000000    
    466 O1    c    0.000000    0.750000      8.2000    -2.00000    1.000000    
    467 O1    c    0.000000    0.750000     16.4000    -2.00000    1.000000    
    468 O1    c    0.000000    0.750000     24.6000    -2.00000    1.000000    
    469 O1    c    0.000000    0.750000     32.8000    -2.00000    1.000000    
    470 O1    c    0.000000    0.750000     41.0000    -2.00000    1.000000    
    471 O1    c    0.000000    0.750000     49.2000    -2.00000    1.000000    
    472 O1    c    0.000000    0.750000     57.4000    -2.00000    1.000000    
    473 O1    c    0.000000    0.750000      4.1000    -2.00000    1.000000    
    474 O1    c    0.000000    0.750000     12.3000    -2.00000    1.000000    
    475 O1    c    0.000000    0.750000     20.5000    -2.00000    1.000000    
    476 O1    c    0.000000    0.750000     28.7000    -2.00000    1.000000    
    477 O1    c    0.000000    0.750000     36.9000    -2.00000    1.000000    
    478 O1    c    0.000000    0.750000     45.1000    -2.00000    1.000000    
    479 O1    c    0.000000    0.750000     53.3000    -2.00000    1.000000    
    480 O1    c    0.000000    0.750000     61.5000    -2.00000    1.000000    
    481 O1    c    0.500000    0.250000      0.0000    -2.00000    1.000000    
    482 O1    c    0.500000    0.250000      8.2000    -2.00000    1.000000    
    483 O1    c    0.500000    0.250000     16.4000    -2.00000    1.000000    
    484 O1    c    0.500000    0.250000     24.6000    -2.00000    1.000000    
    485 O1    c    0.500000    0.250000     32.8000    -2.00000    1.000000    
    486 O1    c    0.500000    0.250000     41.0000    -2.00000    1.000000    
    487 O1    c    0.500000    0.250000     49.2000    -2.00000    1.000000    
    488 O1    c    0.500000    0.250000     57.4000    -2.00000    1.000000    
    489 O1    c    0.500000    0.250000      4.1000    -2.00000    1.000000    
    490 O1    c    0.500000    0.250000     12.3000    -2.00000    1.000000    
    491 O1    c    0.500000    0.250000     20.5000    -2.00000    1.000000    
    492 O1    c    0.500000    0.250000     28.7000    -2.00000    1.000000    
    493 O1    c    0.500000    0.250000     36.9000    -2.00000    1.000000    
    494 O1    c    0.500000    0.250000     45.1000    -2.00000    1.000000    
    495 O1    c    0.500000    0.250000     53.3000    -2.00000    1.000000    
    496 O1    c    0.500000    0.250000     61.5000    -2.00000    1.000000    
    497 O1    c    0.500000    0.750000      0.0000    -2.00000    1.000000    
    498 O1    c    0.500000    0.750000      8.2000    -2.00000    1.000000    
    499 O1    c    0.500000    0.750000     16.4000    -2.00000    1.000000    
    500 O1    c    0.500000    0.750000     24.6000    -2.00000    1.000000    
    501 O1    c    0.500000    0.750000     32.8000    -2.00000    1.000000    
    502 O1    c    0.500000    0.750000     41.0000    -2.00000    1.000000    
    503 O1    c    0.500000    0.750000     49.2000    -2.00000    1.000000    
    504 O1    c    0.500000    0.750000     57.4000    -2.00000    1.000000    
    505 O1    c    0.500000    0.750000      4.1000    -2.00000    1.000000    
    506 O1    c    0.500000    0.750000     12.3000    -2.00000    1.000000    
    507 O1    c    0.500000    0.750000     20.5000    -2.00000    1.000000    
    508 O1    c    0.500000    0.750000     28.7000    -2.00000    1.000000    
    509 O1    c    0.500000    0.750000     36.9000    -2.00000    1.000000    
    510 O1    c    0.500000    0.750000     45.1000    -2.00000    1.000000    
    511 O1    c    0.500000    0.750000     53.3000    -2.00000    1.000000    
    512 O1    c    0.500000    0.750000     61.5000    -2.00000    1.000000    
--------------------------------------------------------------------------------



********************************************************************************
*  General input information                                                   *
********************************************************************************

  Species output for all configurations : 

--------------------------------------------------------------------------------
  Species    Type    Atomic    Atomic    Charge       Radii (Angs)     Library
                     Number     Mass       (e)     Cova   Ionic  VDW   Symbol
--------------------------------------------------------------------------------
    Mg1      Core       12      24.31   2.000000   1.100  0.000  1.640          
    O1       Core        8      16.00  -2.000000   0.730  0.000  1.360          
--------------------------------------------------------------------------------


  Lattice summation method               =    Ewald          (3-D)
                                         =    Parry          (2-D)
                                         =    Saunders et al (1-D)
  Accuracy factor for lattice sums       =   12.000


  Time limit = Infinity

********************************************************************************
*  Output for configuration   1                                                *
********************************************************************************


  Components of energy : 

--------------------------------------------------------------------------------
  Interatomic potentials     =           0.00000000 eV
  Monopole - monopole (real) =       -8944.03326514 eV
  Monopole - monopole (recip)=       -3596.42746374 eV
  Monopole - monopole (total)=      -12540.46072888 eV
--------------------------------------------------------------------------------
  Total lattice energy       =      -12540.46072888 eV
--------------------------------------------------------------------------------
  Total lattice energy       =        -1209962.7618 kJ/(mole unit cells)
--------------------------------------------------------------------------------


  Electrostatic potential at atomic positions :

-------------------------------------------------------------------------------
 Site  Atomic      Potential                Derivatives (V/Angs)
 No.   Label          (V)                 x           y           z
-------------------------------------------------------------------------------
     1 Mg1   c    -23.630105           0.000000    0.000000   -2.033997
     2 Mg1   c    -24.564187           0.000000    0.000000    0.000000
     3 Mg1   c    -24.564187           0.000000    0.000000    0.000000
     4 Mg1   c    -24.564187           0.000000    0.000000    0.000000
     5 Mg1   c    -24.564187           0.000000    0.000000    0.000000
     6 Mg1   c    -24.564187           0.000000    0.000000    0.000000
     7 Mg1   c    -24.564187           0.000000    0.000000    0.000000
     8 Mg1   c    -24.564188           0.000000    0.000000   -0.000003
     9 Mg1   c    -24.537260           0.000000    0.000000   -0.000279
    10 Mg1   c    -24.537388           0.000000    0.000000    0.000000
    11 Mg1   c    -24.537388           0.000000    0.000000    0.000000
    12 Mg1   c    -24.537388           0.000000    0.000000    0.000000
    13 Mg1   c    -24.537388           0.000000    0.000000    0.000000
    14 Mg1   c    -24.537388           0.000000    0.000000    0.000000
    15 Mg1   c    -24.537388           0.000000    0.000000    0.000000
    16 Mg1   c    -24.548254           0.000000    0.000000   -0.023549
    17 Mg1   c    -23.630105           0.000000    0.000000   -2.033997
    18 Mg1   c    -24.564187           0.000000    0.000000    0.000000
    19 Mg1   c    -24.564187           0.000000    0.000000    0.000000
    20 Mg1   c    -24.564187           0.000000    0.000000    0.000000
    21 Mg1   c    -24.564187           0.000000    0.000000    0.000000
    22 Mg1   c    -24.564187           0.000000    0.000000    0.000000
    23 Mg1   c    -24.564187           0.000000    0.000000    0.000000
    24 Mg1   c    -24.564188           0.000000    0.000000   -0.000003
    25 Mg1   c    -24.537260           0.000000    0.000000   -0.000279
    26 Mg1   c    -24.537388           0.000000    0.000000    0.000000
    27 Mg1   c    -24.537388           0.000000    0.000000    0.000000
    28 Mg1   c    -24.537388           0.000000    0.000000    0.000000
    29 Mg1   c    -24.537388           0.000000    0.000000    0.000000
    30 Mg1   c    -24.537388           0.000000    0.000000    0.000000
    31 Mg1   c    -24.537388           0.000000    0.000000    0.000000
    32 Mg1   c    -24.548254           0.000000    0.000000   -0.023549
    33 Mg1   c    -23.630105           0.000000    0.000000   -2.033997
    34 Mg1   c    -24.564187           0.000000    0.000000    0.000000
    35 Mg1   c    -24.564187           0.000000    0.000000    0.000000
    36 Mg1   c    -24.564187           0.000000    0.000000    0.000000
    37 Mg1   c    -24.564187           0.000000    0.000000    0.000000
    38 Mg1   c    -24.564187           0.000000    0.000000    0.000000
    39 Mg1   c    -24.564187           0.000000    0.000000    0.000000
    40 Mg1   c    -24.564188           0.000000    0.000000   -0.000003
    41 Mg1   c    -24.537260           0.000000    0.000000   -0.000279
    42 Mg1   c    -24.537388           0.000000    0.000000    0.000000
    43 Mg1   c    -24.537388           0.000000    0.000000    0.000000
    44 Mg1   c    -24.537388           0.000000    0.000000    0.000000
    45 Mg1   c    -24.537388           0.000000    0.000000    0.000000
    46 Mg1   c    -24.537388           0.000000    0.000000    0.000000
    47 Mg1   c    -24.537388           0.000000    0.000000    0.000000
    48 Mg1   c    -24.548254           0.000000    0.000000   -0.023549
    49 Mg1   c    -23.630105           0.000000    0.000000   -2.033997
    50 Mg1   c    -24.564187           0.000000    0.000000    0.000000
    51 Mg1   c    -24.564187           0.000000    0.000000    0.000000
    52 Mg1   c    -24.564187           0.000000    0.000000    0.000000
    53 Mg1   c    -24.564187           0.000000    0.000000    0.000000
    54 Mg1   c    -24.564187           0.000000    0.000000    0.000000
    55 Mg1   c    -24.564187           0.000000    0.000000    0.000000
    56 Mg1   c    -24.564188           0.000000    0.000000   -0.000003
    57 Mg1   c    -24.537260           0.000000    0.000000   -0.000279
    58 Mg1   c    -24.537388           0.000000    0.000000    0.000000
    59 Mg1   c    -24.537388           0.000000    0.000000    0.000000
    60 Mg1   c    -24.537388           0.000000    0.000000    0.000000
    61 Mg1   c    -24.537388           0.000000    0.000000    0.000000
    62 Mg1   c    -24.537388           0.000000    0.000000    0.000000
    63 Mg1   c    -24.537388           0.000000    0.000000    0.000000
    64 Mg1   c    -24.548254           0.000000    0.000000   -0.023549
    65 Mg1   c    -24.561809           0.000000    0.000000    0.052563
    66 Mg1   c    -24.550785           0.000000    0.000000    0.028673
    67 Mg1   c    -24.550785           0.000000    0.000000    0.028673
    68 Mg1   c    -24.550785           0.000000    0.000000    0.028673
    69 Mg1   c    -24.550785           0.000000    0.000000    0.028673
    70 Mg1   c    -24.550785           0.000000    0.000000    0.028673
    71 Mg1   c    -24.550785           0.000000    0.000000    0.028673
    72 Mg1   c    -24.550658           0.000000    0.000000    0.028948
    73 Mg1   c    -24.550787           0.000000    0.000000   -0.028670
    74 Mg1   c    -24.550785           0.000000    0.000000   -0.028673
    75 Mg1   c    -24.550785           0.000000    0.000000   -0.028673
    76 Mg1   c    -24.550785           0.000000    0.000000   -0.028673
    77 Mg1   c    -24.550785           0.000000    0.000000   -0.028673
    78 Mg1   c    -24.550785           0.000000    0.000000   -0.028673
    79 Mg1   c    -24.550785           0.000000    0.000000   -0.028673
    80 Mg1   c    -23.616859           0.000000    0.000000    2.004987
    81 Mg1   c    -24.561809           0.000000    0.000000    0.052563
    82 Mg1   c    -24.550785           0.000000    0.000000    0.028673
    83 Mg1   c    -24.550785           0.000000    0.000000    0.028673
    84 Mg1   c    -24.550785           0.000000    0.000000    0.028673
    85 Mg1   c    -24.550785           0.000000    0.000000    0.028673
    86 Mg1   c    -24.550785           0.000000    0.000000    0.028673
    87 Mg1   c    -24.550785           0.000000    0.000000    0.028673
    88 Mg1   c    -24.550658           0.000000    0.000000    0.028948
    89 Mg1   c    -24.550787           0.000000    0.000000   -0.028670
    90 Mg1   c    -24.550785           0.000000    0.000000   -0.028673
    91 Mg1   c    -24.550785           0.000000    0.000000   -0.028673
    92 Mg1   c    -24.550785           0.000000    0.000000   -0.028673
    93 Mg1   c    -24.550785           0.000000    0.000000   -0.028673
    94 Mg1   c    -24.550785           0.000000    0.000000   -0.028673
    95 Mg1   c    -24.550785           0.000000    0.000000   -0.028673
    96 Mg1   c    -23.616859           0.000000    0.000000    2.004987
    97 Mg1   c    -24.561809           0.000000    0.000000    0.052563
    98 Mg1   c    -24.550785           0.000000    0.000000    0.028673
    99 Mg1   c    -24.550785           0.000000    0.000000    0.028673
   100 Mg1   c    -24.550785           0.000000    0.000000    0.028673
   101 Mg1   c    -24.550785           0.000000    0.000000    0.028673
   102 Mg1   c    -24.550785           0.000000    0.000000    0.028673
   103 Mg1   c    -24.550785           0.000000    0.000000    0.028673
   104 Mg1   c    -24.550658           0.000000    0.000000    0.028948
   105 Mg1   c    -24.550787           0.000000    0.000000   -0.028670
   106 Mg1   c    -24.550785           0.000000    0.000000   -0.028673
   107 Mg1   c    -24.550785           0.000000    0.000000   -0.028673
   108 Mg1   c    -24.550785           0.000000    0.000000   -0.028673
   109 Mg1   c    -24.550785           0.000000    0.000000   -0.028673
   110 Mg1   c    -24.550785           0.000000    0.000000   -0.028673
   111 Mg1   c    -24.550785           0.000000    0.000000   -0.028673
   112 Mg1   c    -23.616859           0.000000    0.000000    2.004987
   113 Mg1   c    -24.561809           0.000000    0.000000    0.052563
   114 Mg1   c    -24.550785           0.000000    0.000000    0.028673
   115 Mg1   c    -24.550785           0.000000    0.000000    0.028673
   116 Mg1   c    -24.550785           0.000000    0.000000    0.028673
   117 Mg1   c    -24.550785           0.000000    0.000000    0.028673
   118 Mg1   c    -24.550785           0.000000    0.000000    0.028673
   119 Mg1   c    -24.550785           0.000000    0.000000    0.028673
   120 Mg1   c    -24.550658           0.000000    0.000000    0.028948
   121 Mg1   c    -24.550787           0.000000    0.000000   -0.028670
   122 Mg1   c    -24.550785           0.000000    0.000000   -0.028673
   123 Mg1   c    -24.550785           0.000000    0.000000   -0.028673
   124 Mg1   c    -24.550785           0.000000    0.000000   -0.028673
   125 Mg1   c    -24.550785           0.000000    0.000000   -0.028673
   126 Mg1   c    -24.550785           0.000000    0.000000   -0.028673
   127 Mg1   c    -24.550785           0.000000    0.000000   -0.028673
   128 Mg1   c    -23.616859           0.000000    0.000000    2.004987
   129 Mg1   c    -23.630105           0.000000    0.000000   -2.033997
   130 Mg1   c    -24.564187           0.000000    0.000000    0.000000
   131 Mg1   c    -24.564187           0.000000    0.000000    0.000000
   132 Mg1   c    -24.564187           0.000000    0.000000    0.000000
   133 Mg1   c    -24.564187           0.000000    0.000000    0.000000
   134 Mg1   c    -24.564187           0.000000    0.000000    0.000000
   135 Mg1   c    -24.564187           0.000000    0.000000    0.000000
   136 Mg1   c    -24.564188           0.000000    0.000000   -0.000003
   137 Mg1   c    -24.537260           0.000000    0.000000   -0.000279
   138 Mg1   c    -24.537388           0.000000    0.000000    0.000000
   139 Mg1   c    -24.537388           0.000000    0.000000    0.000000
   140 Mg1   c    -24.537388           0.000000    0.000000    0.000000
   141 Mg1   c    -24.537388           0.000000    0.000000    0.000000
   142 Mg1   c    -24.537388           0.000000    0.000000    0.000000
   143 Mg1   c    -24.537388           0.000000    0.000000    0.000000
   144 Mg1   c    -24.548254           0.000000    0.000000   -0.023549
   145 Mg1   c    -23.630105           0.000000    0.000000   -2.033997
   146 Mg1   c    -24.564187           0.000000    0.000000    0.000000
   147 Mg1   c    -24.564187           0.000000    0.000000    0.000000
   148 Mg1   c    -24.564187           0.000000    0.000000    0.000000
   149 Mg1   c    -24.564187           0.000000    0.000000    0.000000
   150 Mg1   c    -24.564187           0.000000    0.000000    0.000000
   151 Mg1   c    -24.564187           0.000000    0.000000    0.000000
   152 Mg1   c    -24.564188           0.000000    0.000000   -0.000003
   153 Mg1   c    -24.537260           0.000000    0.000000   -0.000279
   154 Mg1   c    -24.537388           0.000000    0.000000    0.000000
   155 Mg1   c    -24.537388           0.000000    0.000000    0.000000
   156 Mg1   c    -24.537388           0.000000    0.000000    0.000000
   157 Mg1   c    -24.537388           0.000000    0.000000    0.000000
   158 Mg1   c    -24.537388           0.000000    0.000000    0.000000
   159 Mg1   c    -24.537388           0.000000    0.000000    0.000000
   160 Mg1   c    -24.548254           0.000000    0.000000   -0.023549
   161 Mg1   c    -23.630105           0.000000    0.000000   -2.033997
   162 Mg1   c    -24.564187           0.000000    0.000000    0.000000
   163 Mg1   c    -24.564187           0.000000    0.000000    0.000000
   164 Mg1   c    -24.564187           0.000000    0.000000    0.000000
   165 Mg1   c    -24.564187           0.000000    0.000000    0.000000
   166 Mg1   c    -24.564187           0.000000    0.000000    0.000000
   167 Mg1   c    -24.564187           0.000000    0.000000    0.000000
   168 Mg1   c    -24.564188           0.000000    0.000000   -0.000003
   169 Mg1   c    -24.537260           0.000000    0.000000   -0.000279
   170 Mg1   c    -24.537388           0.000000    0.000000    0.000000
   171 Mg1   c    -24.537388           0.000000    0.000000    0.000000
   172 Mg1   c    -24.537388           0.000000    0.000000    0.000000
   173 Mg1   c    -24.537388           0.000000    0.000000    0.000000
   174 Mg1   c    -24.537388           0.000000    0.000000    0.000000
   175 Mg1   c    -24.537388           0.000000    0.000000    0.000000
   176 Mg1   c    -24.548254           0.000000    0.000000   -0.023549
   177 Mg1   c    -23.630105           0.000000    0.000000   -2.033997
   178 Mg1   c    -24.564187           0.000000    0.000000    0.000000
   179 Mg1   c    -24.564187           0.000000    0.000000    0.000000
   180 Mg1   c    -24.564187           0.000000    0.000000    0.000000
   181 Mg1   c    -24.564187           0.000000    0.000000    0.000000
   182 Mg1   c    -24.564187           0.000000    0.000000    0.000000
   183 Mg1   c    -24.564187           0.000000    0.000000    0.000000
   184 Mg1   c    -24.564188           0.000000    0.000000   -0.000003
   185 Mg1   c    -24.537260           0.000000    0.000000   -0.000279
   186 Mg1   c    -24.537388           0.000000    0.000000    0.000000
   187 Mg1   c    -24.537388           0.000000    0.000000    0.000000
   188 Mg1   c    -24.537388           0.000000    0.000000    0.000000
   189 Mg1   c    -24.537388           0.000000    0.000000    0.000000
   190 Mg1   c    -24.537388           0.000000    0.000000    0.000000
   191 Mg1   c    -24.537388           0.000000    0.000000    0.000000
   192 Mg1   c    -24.548254           0.000000    0.000000   -0.023549
   193 Mg1   c    -24.561809           0.000000    0.000000    0.052563
   194 Mg1   c    -24.550785           0.000000    0.000000    0.028673
   195 Mg1   c    -24.550785           0.000000    0.000000    0.028673
   196 Mg1   c    -24.550785           0.000000    0.000000    0.028673
   197 Mg1   c    -24.550785           0.000000    0.000000    0.028673
   198 Mg1   c    -24.550785           0.000000    0.000000    0.028673
   199 Mg1   c    -24.550785           0.000000    0.000000    0.028673
   200 Mg1   c    -24.550658           0.000000    0.000000    0.028948
   201 Mg1   c    -24.550787           0.000000    0.000000   -0.028670
   202 Mg1   c    -24.550785           0.000000    0.000000   -0.028673
   203 Mg1   c    -24.550785           0.000000    0.000000   -0.028673
   204 Mg1   c    -24.550785           0.000000    0.000000   -0.028673
   205 Mg1   c    -24.550785           0.000000    0.000000   -0.028673
   206 Mg1   c    -24.550785           0.000000    0.000000   -0.028673
   207 Mg1   c    -24.550785           0.000000    0.000000   -0.028673
   208 Mg1   c    -23.616859           0.000000    0.000000    2.004987
   209 Mg1   c    -24.561809           0.000000    0.000000    0.052563
   210 Mg1   c    -24.550785           0.000000    0.000000    0.028673
   211 Mg1   c    -24.550785           0.000000    0.000000    0.028673
   212 Mg1   c    -24.550785           0.000000    0.000000    0.028673
   213 Mg1   c    -24.550785           0.000000    0.000000    0.028673
   214 Mg1   c    -24.550785           0.000000    0.000000    0.028673
   215 Mg1   c    -24.550785           0.000000    0.000000    0.028673
   216 Mg1   c    -24.550658           0.000000    0.000000    0.028948
   217 Mg1   c    -24.550787           0.000000    0.000000   -0.028670
   218 Mg1   c    -24.550785           0.000000    0.000000   -0.028673
   219 Mg1   c    -24.550785           0.000000    0.000000   -0.028673
   220 Mg1   c    -24.550785           0.000000    0.000000   -0.028673
   221 Mg1   c    -24.550785           0.000000    0.000000   -0.028673
   222 Mg1   c    -24.550785           0.000000    0.000000   -0.028673
   223 Mg1   c    -24.550785           0.000000    0.000000   -0.028673
   224 Mg1   c    -23.616859           0.000000    0.000000    2.004987
   225 Mg1   c    -24.561809           0.000000    0.000000    0.052563
   226 Mg1   c    -24.550785           0.000000    0.000000    0.028673
   227 Mg1   c    -24.550785           0.000000    0.000000    0.028673
   228 Mg1   c    -24.550785           0.000000    0.000000    0.028673
   229 Mg1   c    -24.550785           0.000000    0.000000    0.028673
   230 Mg1   c    -24.550785           0.000000    0.000000    0.028673
   231 Mg1   c    -24.550785           0.000000    0.000000    0.028673
   232 Mg1   c    -24.550658           0.000000    0.000000    0.028948
   233 Mg1   c    -24.550787           0.000000    0.000000   -0.028670
   234 Mg1   c    -24.550785           0.000000    0.000000   -0.028673
   235 Mg1   c    -24.550785           0.000000    0.000000   -0.028673
   236 Mg1   c    -24.550785           0.000000    0.000000   -0.028673
   237 Mg1   c    -24.550785           0.000000    0.000000   -0.028673
   238 Mg1   c    -24.550785           0.000000    0.000000   -0.028673
   239 Mg1   c    -24.550785           0.000000    0.000000   -0.028673
   240 Mg1   c    -23.616859           0.000000    0.000000    2.004987
   241 Mg1   c    -24.561809           0.000000    0.000000    0.052563
   242 Mg1   c    -24.550785           0.000000    0.000000    0.028673
   243 Mg1   c    -24.550785           0.000000    0.000000    0.028673
   244 Mg1   c    -24.550785           0.000000    0.000000    0.028673
   245 Mg1   c    -24.550785           0.000000    0.000000    0.028673
   246 Mg1   c    -24.550785           0.000000    0.000000    0.028673
   247 Mg1   c    -24.550785           0.000000    0.000000    0.028673
   248 Mg1   c    -24.550658           0.000000    0.000000    0.028948
   249 Mg1   c    -24.550787           0.000000    0.000000   -0.028670
   250 Mg1   c    -24.550785           0.000000    0.000000   -0.028673
   251 Mg1   c    -24.550785           0.000000    0.000000   -0.028673
   252 Mg1   c    -24.550785           0.000000    0.000000   -0.028673
   253 Mg1   c    -24.550785           0.000000    0.000000   -0.028673
   254 Mg1   c    -24.550785           0.000000    0.000000   -0.028673
   255 Mg1   c    -24.550785           0.000000    0.000000   -0.028673
   256 Mg1   c    -23.616859           0.000000    0.000000    2.004987
   257 O1    c     24.561809           0.000000    0.000000   -0.052563
   258 O1    c     24.550785           0.000000    0.000000   -0.028673
   259 O1    c     24.550785           0.000000    0.000000   -0.028673
   260 O1    c     24.550785           0.000000    0.000000   -0.028673
   261 O1    c     24.550785           0.000000    0.000000   -0.028673
   262 O1    c     24.550785           0.000000    0.000000   -0.028673
   263 O1    c     24.550785           0.000000    0.000000   -0.028673
   264 O1    c     24.550658           0.000000    0.000000   -0.028948
   265 O1    c     24.550787           0.000000    0.000000    0.028670
   266 O1    c     24.550785           0.000000    0.000000    0.028673
   267 O1    c     24.550785           0.000000    0.000000    0.028673
   268 O1    c     24.550785           0.000000    0.000000    0.028673
   269 O1    c     24.550785           0.000000    0.000000    0.028673
   270 O1    c     24.550785           0.000000    0.000000    0.028673
   271 O1    c     24.550785           0.000000    0.000000    0.028673
   272 O1    c     23.616859           0.000000    0.000000   -2.004987
   273 O1    c     24.561809           0.000000    0.000000   -0.052563
   274 O1    c     24.550785           0.000000    0.000000   -0.028673
   275 O1    c     24.550785           0.000000    0.000000   -0.028673
   276 O1    c     24.550785           0.000000    0.000000   -0.028673
   277 O1    c     24.550785           0.000000    0.000000   -0.028673
   278 O1    c     24.550785           0.000000    0.000000   -0.028673
   279 O1    c     24.550785           0.000000    0.000000   -0.028673
   280 O1    c     24.550658           0.000000    0.000000   -0.028948
   281 O1    c     24.550787           0.000000    0.000000    0.028670
   282 O1    c     24.550785           0.000000    0.000000    0.028673
   283 O1    c     24.550785           0.000000    0.000000    0.028673
   284 O1    c     24.550785           0.000000    0.000000    0.028673
   285 O1    c     24.550785           0.000000    0.000000    0.028673
   286 O1    c     24.550785           0.000000    0.000000    0.028673
   287 O1    c     24.550785           0.000000    0.000000    0.028673
   288 O1    c     23.616859           0.000000    0.000000   -2.004987
   289 O1    c     24.561809           0.000000    0.000000   -0.052563
   290 O1    c     24.550785           0.000000    0.000000   -0.028673
   291 O1    c     24.550785           0.000000    0.000000   -0.028673
   292 O1    c     24.550785           0.000000    0.000000   -0.028673
   293 O1    c     24.550785           0.000000    0.000000   -0.028673
   294 O1    c     24.550785           0.000000    0.000000   -0.028673
   295 O1    c     24.550785           0.000000    0.000000   -0.028673
   296 O1    c     24.550658           0.000000    0.000000   -0.028948
   297 O1    c     24.550787           0.000000    0.000000    0.028670
   298 O1    c     24.550785           0.000000    0.000000    0.028673
   299 O1    c     24.550785           0.000000    0.000000    0.028673
   300 O1    c     24.550785           0.000000    0.000000    0.028673
   301 O1    c     24.550785           0.000000    0.000000    0.028673
   302 O1    c     24.550785           0.000000    0.000000    0.028673
   303 O1    c     24.550785           0.000000    0.000000    0.028673
   304 O1    c     23.616859           0.000000    0.000000   -2.004987
   305 O1    c     24.561809           0.000000    0.000000   -0.052563
   306 O1    c     24.550785           0.000000    0.000000   -0.028673
   307 O1    c     24.550785           0.000000    0.000000   -0.028673
   308 O1    c     24.550785           0.000000    0.000000   -0.028673
   309 O1    c     24.550785           0.000000    0.000000   -0.028673
   310 O1    c     24.550785           0.000000    0.000000   -0.028673
   311 O1    c     24.550785           0.000000    0.000000   -0.028673
   312 O1    c     24.550658           0.000000    0.000000   -0.028948
   313 O1    c     24.550787           0.000000    0.000000    0.028670
   314 O1    c     24.550785           0.000000    0.000000    0.028673
   315 O1    c     24.550785           0.000000    0.000000    0.028673
   316 O1    c     24.550785           0.000000    0.000000    0.028673
   317 O1    c     24.550785           0.000000    0.000000    0.028673
   318 O1    c     24.550785           0.000000    0.000000    0.028673
   319 O1    c     24.550785           0.000000    0.000000    0.028673
   320 O1    c     23.616859           0.000000    0.000000   -2.004987
   321 O1    c     23.630105           0.000000    0.000000    2.033997
   322 O1    c     24.564187           0.000000    0.000000    0.000000
   323 O1    c     24.564187           0.000000    0.000000    0.000000
   324 O1    c     24.564187           0.000000    0.000000    0.000000
   325 O1    c     24.564187           0.000000    0.000000    0.000000
   326 O1    c     24.564187           0.000000    0.000000    0.000000
   327 O1    c     24.564187           0.000000    0.000000    0.000000
   328 O1    c     24.564188           0.000000    0.000000    0.000003
   329 O1    c     24.537260           0.000000    0.000000    0.000279
   330 O1    c     24.537388           0.000000    0.000000    0.000000
   331 O1    c     24.537388           0.000000    0.000000    0.000000
   332 O1    c     24.537388           0.000000    0.000000    0.000000
   333 O1    c     24.537388           0.000000    0.000000    0.000000
   334 O1    c     24.537388           0.000000    0.000000    0.000000
   335 O1    c     24.537388           0.000000    0.000000    0.000000
   336 O1    c     24.548254           0.000000    0.000000    0.023549
   337 O1    c     23.630105           0.000000    0.000000    2.033997
   338 O1    c     24.564187           0.000000    0.000000    0.000000
   339 O1    c     24.564187           0.000000    0.000000    0.000000
   340 O1    c     24.564187           0.000000    0.000000    0.000000
   341 O1    c     24.564187           0.000000    0.000000    0.000000
   342 O1    c     24.564187           0.000000    0.000000    0.000000
   343 O1    c     24.564187           0.000000    0.000000    0.000000
   344 O1    c     24.564188           0.000000    0.000000    0.000003
   345 O1    c     24.537260           0.000000    0.000000    0.000279
   346 O1    c     24.537388           0.000000    0.000000    0.000000
   347 O1    c     24.537388           0.000000    0.000000    0.000000
   348 O1    c     24.537388           0.000000    0.000000    0.000000
   349 O1    c     24.537388           0.000000    0.000000    0.000000
   350 O1    c     24.537388           0.000000    0.000000    0.000000
   351 O1    c     24.537388           0.000000    0.000000    0.000000
   352 O1    c     24.548254           0.000000    0.000000    0.023549
   353 O1    c     23.630105           0.000000    0.000000    2.033997
   354 O1    c     24.564187           0.000000    0.000000    0.000000
   355 O1    c     24.564187           0.000000    0.000000    0.000000
   356 O1    c     24.564187           0.000000    0.000000    0.000000
   357 O1    c     24.564187           0.000000    0.000000    0.000000
   358 O1    c     24.564187           0.000000    0.000000    0.000000
   359 O1    c     24.564187           0.000000    0.000000    0.000000
   360 O1    c     24.564188           0.000000    0.000000    0.000003
   361 O1    c     24.537260           0.000000    0.000000    0.000279
   362 O1    c     24.537388           0.000000    0.000000    0.000000
   363 O1    c     24.537388           0.000000    0.000000    0.000000
   364 O1    c     24.537388           0.000000    0.000000    0.000000
   365 O1    c     24.537388           0.000000    0.000000    0.000000
   366 O1    c     24.537388           0.000000    0.000000    0.000000
   367 O1    c     24.537388           0.000000    0.000000    0.000000
   368 O1    c     24.548254           0.000000    0.000000    0.023549
   369 O1    c     23.630105           0.000000    0.000000    2.033997
   370 O1    c     24.564187           0.000000    0.000000    0.000000
   371 O1    c     24.564187           0.000000    0.000000    0.000000
   372 O1    c     24.564187           0.000000    0.000000    0.000000
   373 O1    c     24.564187           0.000000    0.000000    0.000000
   374 O1    c     24.564187           0.000000    0.000000    0.000000
   375 O1    c     24.564187           0.000000    0.000000    0.000000
   376 O1    c     24.564188           0.000000    0.000000    0.000003
   377 O1    c     24.537260           0.000000    0.000000    0.000279
   378 O1    c     24.537388           0.000000    0.000000    0.000000
   379 O1    c     24.537388           0.000000    0.000000    0.000000
   380 O1    c     24.537388           0.000000    0.000000    0.000000
   381 O1    c     24.537388           0.000000    0.000000    0.000000
   382 O1    c     24.537388           0.000000    0.000000    0.000000
   383 O1    c     24.537388           0.000000    0.000000    0.000000
   384 O1    c     24.548254           0.000000    0.000000    0.023549
   385 O1    c     24.561809           0.000000    0.000000   -0.052563
   386 O1    c     24.550785           0.000000    0.000000   -0.028673
   387 O1    c     24.550785           0.000000    0.000000   -0.028673
   388 O1    c     24.550785           0.000000    0.000000   -0.028673
   389 O1    c     24.550785           0.000000    0.000000   -0.028673
   390 O1    c     24.550785           0.000000    0.000000   -0.028673
   391 O1    c     24.550785           0.000000    0.000000   -0.028673
   392 O1    c     24.550658           0.000000    0.000000   -0.028948
   393 O1    c     24.550787           0.000000    0.000000    0.028670
   394 O1    c     24.550785           0.000000    0.000000    0.028673
   395 O1    c     24.550785           0.000000    0.000000    0.028673
   396 O1    c     24.550785           0.000000    0.000000    0.028673
   397 O1    c     24.550785           0.000000    0.000000    0.028673
   398 O1    c     24.550785           0.000000    0.000000    0.028673
   399 O1    c     24.550785           0.000000    0.000000    0.028673
   400 O1    c     23.616859           0.000000    0.000000   -2.004987
   401 O1    c     24.561809           0.000000    0.000000   -0.052563
   402 O1    c     24.550785           0.000000    0.000000   -0.028673
   403 O1    c     24.550785           0.000000    0.000000   -0.028673
   404 O1    c     24.550785           0.000000    0.000000   -0.028673
   405 O1    c     24.550785           0.000000    0.000000   -0.028673
   406 O1    c     24.550785           0.000000    0.000000   -0.028673
   407 O1    c     24.550785           0.000000    0.000000   -0.028673
   408 O1    c     24.550658           0.000000    0.000000   -0.028948
   409 O1    c     24.550787           0.000000    0.000000    0.028670
   410 O1    c     24.550785           0.000000    0.000000    0.028673
   411 O1    c     24.550785           0.000000    0.000000    0.028673
   412 O1    c     24.550785           0.000000    0.000000    0.028673
   413 O1    c     24.550785           0.000000    0.000000    0.028673
   414 O1    c     24.550785           0.000000    0.000000    0.028673
   415 O1    c     24.550785           0.000000    0.000000    0.028673
   416 O1    c     23.616859           0.000000    0.000000   -2.004987
   417 O1    c     24.561809           0.000000    0.000000   -0.052563
   418 O1    c     24.550785           0.000000    0.000000   -0.028673
   419 O1    c     24.550785           0.000000    0.000000   -0.028673
   420 O1    c     24.550785           0.000000    0.000000   -0.028673
   421 O1    c     24.550785           0.000000    0.000000   -0.028673
   422 O1    c     24.550785           0.000000    0.000000   -0.028673
   423 O1    c     24.550785           0.000000    0.000000   -0.028673
   424 O1    c     24.550658           0.000000    0.000000   -0.028948
   425 O1    c     24.550787           0.000000    0.000000    0.028670
   426 O1    c     24.550785           0.000000    0.000000    0.028673
   427 O1    c     24.550785           0.000000    0.000000    0.028673
   428 O1    c     24.550785           0.000000    0.000000    0.028673
   429 O1    c     24.550785           0.000000    0.000000    0.028673
   430 O1    c     24.550785           0.000000    0.000000    0.028673
   431 O1    c     24.550785           0.000000    0.000000    0.028673
   432 O1    c     23.616859           0.000000    0.000000   -2.004987
   433 O1    c     24.561809           0.000000    0.000000   -0.052563
   434 O1    c     24.550785           0.000000    0.000000   -0.028673
   435 O1    c     24.550785           0.000000    0.000000   -0.028673
   436 O1    c     24.550785           0.000000    0.000000   -0.028673
   437 O1    c     24.550785           0.000000    0.000000   -0.028673
   438 O1    c     24.550785           0.000000    0.000000   -0.028673
   439 O1    c     24.550785           0.000000    0.000000   -0.028673
   440 O1    c     24.550658           0.000000    0.000000   -0.028948
   441 O1    c     24.550787           0.000000    0.000000    0.028670
   442 O1    c     24.550785           0.000000    0.000000    0.028673
   443 O1    c     24.550785           0.000000    0.000000    0.028673
   444 O1    c     24.550785           0.000000    0.000000    0.028673
   445 O1    c     24.550785           0.000000    0.000000    0.028673
   446 O1    c     24.550785           0.000000    0.000000    0.028673
   447 O1    c     24.550785           0.000000    0.000000    0.028673
   448 O1    c     23.616859           0.000000    0.000000   -2.004987
   449 O1    c     23.630105           0.000000    0.000000    2.033997
   450 O1    c     24.564187           0.000000    0.000000    0.000000
   451 O1    c     24.564187           0.000000    0.000000    0.000000
   452 O1    c     24.564187           0.000000    0.000000    0.000000
   453 O1    c     24.564187           0.000000    0.000000    0.000000
   454 O1    c     24.564187           0.000000    0.000000    0.000000
   455 O1    c     24.564187           0.000000    0.000000    0.000000
   456 O1    c     24.564188           0.000000    0.000000    0.000003
   457 O1    c     24.537260           0.000000    0.000000    0.000279
   458 O1    c     24.537388           0.000000    0.000000    0.000000
   459 O1    c     24.537388           0.000000    0.000000    0.000000
   460 O1    c     24.537388           0.000000    0.000000    0.000000
   461 O1    c     24.537388           0.000000    0.000000    0.000000
   462 O1    c     24.537388           0.000000    0.000000    0.000000
   463 O1    c     24.537388           0.000000    0.000000    0.000000
   464 O1    c     24.548254           0.000000    0.000000    0.023549
   465 O1    c     23.630105           0.000000    0.000000    2.033997
   466 O1    c     24.564187           0.000000    0.000000    0.000000
   467 O1    c     24.564187           0.000000    0.000000    0.000000
   468 O1    c     24.564187           0.000000    0.000000    0.000000
   469 O1    c     24.564187           0.000000    0.000000    0.000000
   470 O1    c     24.564187           0.000000    0.000000    0.000000
   471 O1    c     24.564187           0.000000    0.000000    0.000000
   472 O1    c     24.564188           0.000000    0.000000    0.000003
   473 O1    c     24.537260           0.000000    0.000000    0.000279
[...]
      262      -0.0001   -0.0001    0.0002             0.0006        0.0000
      263      -0.0001   -0.0001    0.0002             0.0006        0.0000
      264       0.0002    0.0002   -0.0004             0.0009        0.0000
      265      -0.0001   -0.0001    0.0002             0.0006        0.0000
      266      -0.0001   -0.0001    0.0002             0.0006        0.0000
      267      -0.0001   -0.0001    0.0002             0.0006        0.0000
      268      -0.0001   -0.0001    0.0002             0.0006        0.0000
      269      -0.0001   -0.0001    0.0002             0.0006        0.0000
      270      -0.0001   -0.0001    0.0002             0.0006        0.0000
      271      -0.0001   -0.0001    0.0002             0.0006        0.0000
      272       2.2271    2.2271   -4.4542            10.7700        0.0000
      273      -0.0260   -0.0260    0.0520             0.1258        0.0000
      274      -0.0001   -0.0001    0.0002             0.0006        0.0000
      275      -0.0001   -0.0001    0.0002             0.0006        0.0000
      276      -0.0001   -0.0001    0.0002             0.0006        0.0000
      277      -0.0001   -0.0001    0.0002             0.0006        0.0000
      278      -0.0001   -0.0001    0.0002             0.0006        0.0000
      279      -0.0001   -0.0001    0.0002             0.0006        0.0000
      280       0.0002    0.0002   -0.0004             0.0009        0.0000
      281      -0.0001   -0.0001    0.0002             0.0006        0.0000
      282      -0.0001   -0.0001    0.0002             0.0006        0.0000
      283      -0.0001   -0.0001    0.0002             0.0006        0.0000
      284      -0.0001   -0.0001    0.0002             0.0006        0.0000
      285      -0.0001   -0.0001    0.0002             0.0006        0.0000
      286      -0.0001   -0.0001    0.0002             0.0006        0.0000
      287      -0.0001   -0.0001    0.0002             0.0006        0.0000
      288       2.2271    2.2271   -4.4542            10.7700        0.0000
      289      -0.0260   -0.0260    0.0520             0.1258        0.0000
      290      -0.0001   -0.0001    0.0002             0.0006        0.0000
      291      -0.0001   -0.0001    0.0002             0.0006        0.0000
      292      -0.0001   -0.0001    0.0002             0.0006        0.0000
      293      -0.0001   -0.0001    0.0002             0.0006        0.0000
      294      -0.0001   -0.0001    0.0002             0.0006        0.0000
      295      -0.0001   -0.0001    0.0002             0.0006        0.0000
      296       0.0002    0.0002   -0.0004             0.0009        0.0000
      297      -0.0001   -0.0001    0.0002             0.0006        0.0000
      298      -0.0001   -0.0001    0.0002             0.0006        0.0000
      299      -0.0001   -0.0001    0.0002             0.0006        0.0000
      300      -0.0001   -0.0001    0.0002             0.0006        0.0000
      301      -0.0001   -0.0001    0.0002             0.0006        0.0000
      302      -0.0001   -0.0001    0.0002             0.0006        0.0000
      303      -0.0001   -0.0001    0.0002             0.0006        0.0000
      304       2.2271    2.2271   -4.4542            10.7700        0.0000
      305      -0.0260   -0.0260    0.0520             0.1258        0.0000
      306      -0.0001   -0.0001    0.0002             0.0006        0.0000
      307      -0.0001   -0.0001    0.0002             0.0006        0.0000
      308      -0.0001   -0.0001    0.0002             0.0006        0.0000
      309      -0.0001   -0.0001    0.0002             0.0006        0.0000
      310      -0.0001   -0.0001    0.0002             0.0006        0.0000
      311      -0.0001   -0.0001    0.0002             0.0006        0.0000
      312       0.0002    0.0002   -0.0004             0.0009        0.0000
      313      -0.0001   -0.0001    0.0002             0.0006        0.0000
      314      -0.0001   -0.0001    0.0002             0.0006        0.0000
      315      -0.0001   -0.0001    0.0002             0.0006        0.0000
      316      -0.0001   -0.0001    0.0002             0.0006        0.0000
      317      -0.0001   -0.0001    0.0002             0.0006        0.0000
      318      -0.0001   -0.0001    0.0002             0.0006        0.0000
      319      -0.0001   -0.0001    0.0002             0.0006        0.0000
      320       2.2271    2.2271   -4.4542            10.7700        0.0000
      321       2.1949    2.1949   -4.3898            10.6144        0.0000
      322      -0.0327   -0.0327    0.0653             0.1579        0.0000
      323      -0.0327   -0.0327    0.0653             0.1579        0.0000
      324      -0.0327   -0.0327    0.0653             0.1579        0.0000
      325      -0.0327   -0.0327    0.0653             0.1579        0.0000
      326      -0.0327   -0.0327    0.0653             0.1579        0.0000
      327      -0.0327   -0.0327    0.0653             0.1579        0.0000
      328      -0.0327   -0.0327    0.0653             0.1580        0.0000
      329       0.0327    0.0327   -0.0654             0.1582        0.0000
      330       0.0324    0.0324   -0.0648             0.1568        0.0000
      331       0.0324    0.0324   -0.0648             0.1568        0.0000
      332       0.0324    0.0324   -0.0648             0.1568        0.0000
      333       0.0324    0.0324   -0.0648             0.1568        0.0000
      334       0.0324    0.0324   -0.0648             0.1568        0.0000
      335       0.0324    0.0324   -0.0648             0.1568        0.0000
      336       0.0069    0.0069   -0.0138             0.0334        0.0000
      337       2.1949    2.1949   -4.3898            10.6144        0.0000
      338      -0.0327   -0.0327    0.0653             0.1579        0.0000
      339      -0.0327   -0.0327    0.0653             0.1579        0.0000
      340      -0.0327   -0.0327    0.0653             0.1579        0.0000
      341      -0.0327   -0.0327    0.0653             0.1579        0.0000
      342      -0.0327   -0.0327    0.0653             0.1579        0.0000
      343      -0.0327   -0.0327    0.0653             0.1579        0.0000
      344      -0.0327   -0.0327    0.0653             0.1580        0.0000
      345       0.0327    0.0327   -0.0654             0.1582        0.0000
      346       0.0324    0.0324   -0.0648             0.1568        0.0000
      347       0.0324    0.0324   -0.0648             0.1568        0.0000
      348       0.0324    0.0324   -0.0648             0.1568        0.0000
      349       0.0324    0.0324   -0.0648             0.1568        0.0000
      350       0.0324    0.0324   -0.0648             0.1568        0.0000
      351       0.0324    0.0324   -0.0648             0.1568        0.0000
      352       0.0069    0.0069   -0.0138             0.0334        0.0000
      353       2.1949    2.1949   -4.3898            10.6144        0.0000
      354      -0.0327   -0.0327    0.0653             0.1579        0.0000
      355      -0.0327   -0.0327    0.0653             0.1579        0.0000
      356      -0.0327   -0.0327    0.0653             0.1579        0.0000
      357      -0.0327   -0.0327    0.0653             0.1579        0.0000
      358      -0.0327   -0.0327    0.0653             0.1579        0.0000
      359      -0.0327   -0.0327    0.0653             0.1579        0.0000
      360      -0.0327   -0.0327    0.0653             0.1580        0.0000
      361       0.0327    0.0327   -0.0654             0.1582        0.0000
      362       0.0324    0.0324   -0.0648             0.1568        0.0000
      363       0.0324    0.0324   -0.0648             0.1568        0.0000
      364       0.0324    0.0324   -0.0648             0.1568        0.0000
      365       0.0324    0.0324   -0.0648             0.1568        0.0000
      366       0.0324    0.0324   -0.0648             0.1568        0.0000
      367       0.0324    0.0324   -0.0648             0.1568        0.0000
      368       0.0069    0.0069   -0.0138             0.0334        0.0000
      369       2.1949    2.1949   -4.3898            10.6144        0.0000
      370      -0.0327   -0.0327    0.0653             0.1579        0.0000
      371      -0.0327   -0.0327    0.0653             0.1579        0.0000
      372      -0.0327   -0.0327    0.0653             0.1579        0.0000
      373      -0.0327   -0.0327    0.0653             0.1579        0.0000
      374      -0.0327   -0.0327    0.0653             0.1579        0.0000
      375      -0.0327   -0.0327    0.0653             0.1579        0.0000
      376      -0.0327   -0.0327    0.0653             0.1580        0.0000
      377       0.0327    0.0327   -0.0654             0.1582        0.0000
      378       0.0324    0.0324   -0.0648             0.1568        0.0000
      379       0.0324    0.0324   -0.0648             0.1568        0.0000
      380       0.0324    0.0324   -0.0648             0.1568        0.0000
      381       0.0324    0.0324   -0.0648             0.1568        0.0000
      382       0.0324    0.0324   -0.0648             0.1568        0.0000
      383       0.0324    0.0324   -0.0648             0.1568        0.0000
      384       0.0069    0.0069   -0.0138             0.0334        0.0000
      385      -0.0260   -0.0260    0.0520             0.1258        0.0000
      386      -0.0001   -0.0001    0.0002             0.0006        0.0000
      387      -0.0001   -0.0001    0.0002             0.0006        0.0000
      388      -0.0001   -0.0001    0.0002             0.0006        0.0000
      389      -0.0001   -0.0001    0.0002             0.0006        0.0000
      390      -0.0001   -0.0001    0.0002             0.0006        0.0000
      391      -0.0001   -0.0001    0.0002             0.0006        0.0000
      392       0.0002    0.0002   -0.0004             0.0009        0.0000
      393      -0.0001   -0.0001    0.0002             0.0006        0.0000
      394      -0.0001   -0.0001    0.0002             0.0006        0.0000
      395      -0.0001   -0.0001    0.0002             0.0006        0.0000
      396      -0.0001   -0.0001    0.0002             0.0006        0.0000
      397      -0.0001   -0.0001    0.0002             0.0006        0.0000
      398      -0.0001   -0.0001    0.0002             0.0006        0.0000
      399      -0.0001   -0.0001    0.0002             0.0006        0.0000
      400       2.2271    2.2271   -4.4542            10.7700        0.0000
      401      -0.0260   -0.0260    0.0520             0.1258        0.0000
      402      -0.0001   -0.0001    0.0002             0.0006        0.0000
      403      -0.0001   -0.0001    0.0002             0.0006        0.0000
      404      -0.0001   -0.0001    0.0002             0.0006        0.0000
      405      -0.0001   -0.0001    0.0002             0.0006        0.0000
      406      -0.0001   -0.0001    0.0002             0.0006        0.0000
      407      -0.0001   -0.0001    0.0002             0.0006        0.0000
      408       0.0002    0.0002   -0.0004             0.0009        0.0000
      409      -0.0001   -0.0001    0.0002             0.0006        0.0000
      410      -0.0001   -0.0001    0.0002             0.0006        0.0000
      411      -0.0001   -0.0001    0.0002             0.0006        0.0000
      412      -0.0001   -0.0001    0.0002             0.0006        0.0000
      413      -0.0001   -0.0001    0.0002             0.0006        0.0000
      414      -0.0001   -0.0001    0.0002             0.0006        0.0000
      415      -0.0001   -0.0001    0.0002             0.0006        0.0000
      416       2.2271    2.2271   -4.4542            10.7700        0.0000
      417      -0.0260   -0.0260    0.0520             0.1258        0.0000
      418      -0.0001   -0.0001    0.0002             0.0006        0.0000
      419      -0.0001   -0.0001    0.0002             0.0006        0.0000
      420      -0.0001   -0.0001    0.0002             0.0006        0.0000
      421      -0.0001   -0.0001    0.0002             0.0006        0.0000
      422      -0.0001   -0.0001    0.0002             0.0006        0.0000
      423      -0.0001   -0.0001    0.0002             0.0006        0.0000
      424       0.0002    0.0002   -0.0004             0.0009        0.0000
      425      -0.0001   -0.0001    0.0002             0.0006        0.0000
      426      -0.0001   -0.0001    0.0002             0.0006        0.0000
      427      -0.0001   -0.0001    0.0002             0.0006        0.0000
      428      -0.0001   -0.0001    0.0002             0.0006        0.0000
      429      -0.0001   -0.0001    0.0002             0.0006        0.0000
      430      -0.0001   -0.0001    0.0002             0.0006        0.0000
      431      -0.0001   -0.0001    0.0002             0.0006        0.0000
      432       2.2271    2.2271   -4.4542            10.7700        0.0000
      433      -0.0260   -0.0260    0.0520             0.1258        0.0000
      434      -0.0001   -0.0001    0.0002             0.0006        0.0000
      435      -0.0001   -0.0001    0.0002             0.0006        0.0000
      436      -0.0001   -0.0001    0.0002             0.0006        0.0000
      437      -0.0001   -0.0001    0.0002             0.0006        0.0000
      438      -0.0001   -0.0001    0.0002             0.0006        0.0000
      439      -0.0001   -0.0001    0.0002             0.0006        0.0000
      440       0.0002    0.0002   -0.0004             0.0009        0.0000
      441      -0.0001   -0.0001    0.0002             0.0006        0.0000
      442      -0.0001   -0.0001    0.0002             0.0006        0.0000
      443      -0.0001   -0.0001    0.0002             0.0006        0.0000
      444      -0.0001   -0.0001    0.0002             0.0006        0.0000
      445      -0.0001   -0.0001    0.0002             0.0006        0.0000
      446      -0.0001   -0.0001    0.0002             0.0006        0.0000
      447      -0.0001   -0.0001    0.0002             0.0006        0.0000
      448       2.2271    2.2271   -4.4542            10.7700        0.0000
      449       2.1949    2.1949   -4.3898            10.6144        0.0000
      450      -0.0327   -0.0327    0.0653             0.1579        0.0000
      451      -0.0327   -0.0327    0.0653             0.1579        0.0000
      452      -0.0327   -0.0327    0.0653             0.1579        0.0000
      453      -0.0327   -0.0327    0.0653             0.1579        0.0000
      454      -0.0327   -0.0327    0.0653             0.1579        0.0000
      455      -0.0327   -0.0327    0.0653             0.1579        0.0000
      456      -0.0327   -0.0327    0.0653             0.1580        0.0000
      457       0.0327    0.0327   -0.0654             0.1582        0.0000
      458       0.0324    0.0324   -0.0648             0.1568        0.0000
      459       0.0324    0.0324   -0.0648             0.1568        0.0000
      460       0.0324    0.0324   -0.0648             0.1568        0.0000
      461       0.0324    0.0324   -0.0648             0.1568        0.0000
      462       0.0324    0.0324   -0.0648             0.1568        0.0000
      463       0.0324    0.0324   -0.0648             0.1568        0.0000
      464       0.0069    0.0069   -0.0138             0.0334        0.0000
      465       2.1949    2.1949   -4.3898            10.6144        0.0000
      466      -0.0327   -0.0327    0.0653             0.1579        0.0000
      467      -0.0327   -0.0327    0.0653             0.1579        0.0000
      468      -0.0327   -0.0327    0.0653             0.1579        0.0000
      469      -0.0327   -0.0327    0.0653             0.1579        0.0000
      470      -0.0327   -0.0327    0.0653             0.1579        0.0000
      471      -0.0327   -0.0327    0.0653             0.1579        0.0000
      472      -0.0327   -0.0327    0.0653             0.1580        0.0000
      473       0.0327    0.0327   -0.0654             0.1582        0.0000
      474       0.0324    0.0324   -0.0648             0.1568        0.0000
      475       0.0324    0.0324   -0.0648             0.1568        0.0000
      476       0.0324    0.0324   -0.0648             0.1568        0.0000
      477       0.0324    0.0324   -0.0648             0.1568        0.0000
      478       0.0324    0.0324   -0.0648             0.1568        0.0000
      479       0.0324    0.0324   -0.0648             0.1568        0.0000
      480       0.0069    0.0069   -0.0138             0.0334        0.0000
      481       2.1949    2.1949   -4.3898            10.6144        0.0000
      482      -0.0327   -0.0327    0.0653             0.1579        0.0000
      483      -0.0327   -0.0327    0.0653             0.1579        0.0000
      484      -0.0327   -0.0327    0.0653             0.1579        0.0000
      485      -0.0327   -0.0327    0.0653             0.1579        0.0000
      486      -0.0327   -0.0327    0.0653             0.1579        0.0000
      487      -0.0327   -0.0327    0.0653             0.1579        0.0000
      488      -0.0327   -0.0327    0.0653             0.1580        0.0000
      489       0.0327    0.0327   -0.0654             0.1582        0.0000
      490       0.0324    0.0324   -0.0648             0.1568        0.0000
      491       0.0324    0.0324   -0.0648             0.1568        0.0000
      492       0.0324    0.0324   -0.0648             0.1568        0.0000
      493       0.0324    0.0324   -0.0648             0.1568        0.0000
      494       0.0324    0.0324   -0.0648             0.1568        0.0000
      495       0.0324    0.0324   -0.0648             0.1568        0.0000
      496       0.0069    0.0069   -0.0138             0.0334        0.0000
      497       2.1949    2.1949   -4.3898            10.6144        0.0000
      498      -0.0327   -0.0327    0.0653             0.1579        0.0000
      499      -0.0327   -0.0327    0.0653             0.1579        0.0000
      500      -0.0327   -0.0327    0.0653             0.1579        0.0000
      501      -0.0327   -0.0327    0.0653             0.1579        0.0000
      502      -0.0327   -0.0327    0.0653             0.1579        0.0000
      503      -0.0327   -0.0327    0.0653             0.1579        0.0000
      504      -0.0327   -0.0327    0.0653             0.1580        0.0000
      505       0.0327    0.0327   -0.0654             0.1582        0.0000
      506       0.0324    0.0324   -0.0648             0.1568        0.0000
      507       0.0324    0.0324   -0.0648             0.1568        0.0000
      508       0.0324    0.0324   -0.0648             0.1568        0.0000
      509       0.0324    0.0324   -0.0648             0.1568        0.0000
      510       0.0324    0.0324   -0.0648             0.1568        0.0000
      511       0.0324    0.0324   -0.0648             0.1568        0.0000
      512       0.0069    0.0069   -0.0138             0.0334        0.0000
-------------------------------------------------------------------------------

  Total time to end of lattice properties =       3.5837 s


  Peak dynamic memory used =       1.68 MB 


  Timing analysis for GULP :

--------------------------------------------------------------------------------
  Task / Subroutine                                          Time (Seconds)
--------------------------------------------------------------------------------
  Calculation of reciprocal space energy and derivatives          3.0118
  Calculation of real space energy and derivatives                0.5507
--------------------------------------------------------------------------------
  Total CPU time                                                  3.5837
--------------------------------------------------------------------------------


  Job Finished at 11:23.26 28th March      2013                               

